data_itq

_audit_creation_method RASPA-1.0
_audit_creation_date 2017-1-4
_audit_author_name 'axolotlol'

_citation_author_name        'A. Corma, F. Rey, J. Rius, M.J. Sabater, and S. Valencia'
_citation_title              'Supramolecular self-assembled molecules as organic directing agent for synthesis of zeolites'
_citation_journal_abbrev     'Nature'
_citation_journal_volume     431
_citation_page_first         287
_citation_page_last          290
_citation_year               2004

_cell_length_a    11.8671
_cell_length_b    11.8671
_cell_length_c    11.8671
_cell_angle_alpha 90
_cell_angle_beta  90
_cell_angle_gamma 90
_cell_volume      13369.8

_symmetry_cell_setting          cubic
_symmetry_space_group_name_Hall '-P 4 2 3'
_symmetry_space_group_name_H-M  'P m -3 m'
_symmetry_Int_Tables_number     221

loop_
_symmetry_equiv_pos_as_xyz
 'x,y,z'
 '-x,-y,z'
 '-x,y,-z'
 'x,-y,-z'
 'z,x,y'
 'z,-x,-y'
 '-z,-x,y'
 '-z,x,-y'
 'y,z,x'
 '-y,z,-x'
 'y,-z,-x'
 '-y,-z,x'
 'y,x,-z'
 '-y,-x,-z'
 'y,-x,z'
 '-y,x,z'
 'x,z,-y'
 '-x,z,y'
 '-x,-z,-y'
 'x,-z,y'
 'z,y,-x'
 'z,-y,x'
 '-z,y,x'
 '-z,-y,-x'
 '-x,-y,-z'
 'x,y,-z'
 'x,-y,z'
 '-x,y,z'
 '-z,-x,-y'
 '-z,x,y'
 'z,x,-y'
 'z,-x,y'
 '-y,-z,-x'
 'y,-z,x'
 '-y,z,x'
 'y,z,-x'
 '-y,-x,z'
 'y,x,z'
 '-y,x,-z'
 'y,-x,-z'
 '-x,-z,y'
 'x,-z,-y'
 'x,z,y'
 '-x,z,-y'
 '-z,-y,x'
 '-z,y,-x'
 'z,-y,-x'
 'z,y,x'

loop_
_atom_site_label
_atom_site_type_symbol
_atom_site_fract_x
_atom_site_fract_y
_atom_site_fract_z
_atom_site_charge
Si       Si     0.368300000000     0.184700000000     0.000000000000     4     
O        O      0.500000000000     0.217900000000     0.000000000000     0.870733
O        O      0.293900000000     0.293900000000     0.000000000000     0.870733
O        O      0.342900000000     0.109800000000     0.109800000000     0.870733


