data_itq

_audit_creation_method RASPA-1.0
_audit_creation_date 2017-1-4
_audit_author_name 'axolotlol'

_citation_author_name        'A. Corma, F. Rey, J. Rius, M.J. Sabater, and S. Valencia'
_citation_title              'Supramolecular self-assembled molecules as organic directing agent for synthesis of zeolites'
_citation_journal_abbrev     'Nature'
_citation_journal_volume     431
_citation_page_first         287
_citation_page_last          290
_citation_year               2004

_cell_length_a    23.7342
_cell_length_b    23.7342
_cell_length_c    23.7342
_cell_angle_alpha 90
_cell_angle_beta  90
_cell_angle_gamma 90
_cell_volume      13369.8

_symmetry_cell_setting          cubic
_symmetry_space_group_name_Hall 'P 1'
_symmetry_space_group_name_H-M  'P 1'
_symmetry_Int_Tables_number     1

_symmetry_equiv_pos_as_xyz 'x,y,z'

loop_
_atom_site_label
_atom_site_type_symbol
_atom_site_fract_x
_atom_site_fract_y
_atom_site_fract_z
_atom_site_charge
Si       Si     0.184150000000     0.092350000000     0.000000000000     4          
Oss      O      0.250000000000     0.108950000000     0.000000000000     0.870733   
Oss      O      0.146950000000     0.146950000000     0.000000000000     0.870733   
Oss      O      0.171450000000     0.054900000000     0.054900000000     0.870733   
Si       Si     0.407650000000     0.184150000000     0.000000000000     4          
Oss      O      0.391050000000     0.250000000000     0.000000000000     0.870733   
Oss      O      0.353050000000     0.146950000000     0.000000000000     0.870733   
Oss      O      0.445100000000     0.171450000000     0.054900000000     0.870733   
Si       Si     0.315850000000     0.407650000000     0.000000000000     4          
Oss      O      0.250000000000     0.391050000000     0.000000000000     0.870733   
Oss      O      0.353050000000     0.353050000000     0.000000000000     0.870733   
Oss      O      0.328550000000     0.445100000000     0.054900000000     0.870733   
Si       Si     0.092350000000     0.315850000000     0.000000000000     4          
Oss      O      0.108950000000     0.250000000000     0.000000000000     0.870733   
Oss      O      0.146950000000     0.353050000000     0.000000000000     0.870733   
Oss      O      0.054900000000     0.328550000000     0.054900000000     0.870733   
Si       Si     0.184150000000     0.407650000000     0.000000000000     4          
Oss      O      0.171450000000     0.445100000000     0.445100000000     0.870733   
Si       Si     0.092350000000     0.184150000000     0.000000000000     4          
Oss      O      0.054900000000     0.171450000000     0.445100000000     0.870733   
Si       Si     0.315850000000     0.092350000000     0.000000000000     4          
Oss      O      0.328550000000     0.054900000000     0.445100000000     0.870733   
Si       Si     0.407650000000     0.315850000000     0.000000000000     4          
Oss      O      0.445100000000     0.328550000000     0.445100000000     0.870733   
Si       Si     0.000000000000     0.184150000000     0.092350000000     4          
Oss      O      0.000000000000     0.250000000000     0.108950000000     0.870733   
Oss      O      0.000000000000     0.146950000000     0.146950000000     0.870733   
Oss      O      0.054900000000     0.171450000000     0.054900000000     0.870733   
Si       Si     0.315850000000     0.000000000000     0.092350000000     4          
Oss      O      0.250000000000     0.000000000000     0.108950000000     0.870733   
Oss      O      0.353050000000     0.000000000000     0.146950000000     0.870733   
Oss      O      0.328550000000     0.054900000000     0.054900000000     0.870733   
Si       Si     0.000000000000     0.315850000000     0.092350000000     4          
Ogs      O      0.000000000000     0.353050000000     0.146950000000     1.33043    
Oss      O      0.445100000000     0.328550000000     0.054900000000     0.870733   
Si       Si     0.184150000000     0.000000000000     0.092350000000     4          
Oss      O      0.146950000000     0.000000000000     0.146950000000     0.870733   
Oss      O      0.171450000000     0.445100000000     0.054900000000     0.870733   
Si       Si     0.000000000000     0.315850000000     0.407650000000     4          
Oss      O      0.000000000000     0.250000000000     0.391050000000     0.870733   
Ogs      O      0.000000000000     0.353050000000     0.353050000000     1.33043    
Oss      O      0.054900000000     0.328550000000     0.445100000000     0.870733   
Ge       Ge     0.184150000000     0.000000000000     0.407650000000     4          
Ogs      O      0.250000000000     0.000000000000     0.391050000000     1.33043    
Ogs      O      0.146950000000     0.000000000000     0.353050000000     1.33043    
Ogs      O      0.171450000000     0.054900000000     0.445100000000     1.33043    
Si       Si     0.000000000000     0.184150000000     0.407650000000     4          
Oss      O      0.000000000000     0.146950000000     0.353050000000     0.870733   
Ogs      O      0.445100000000     0.171450000000     0.445100000000     1.33043    
Si       Si     0.315850000000     0.000000000000     0.407650000000     4          
Ogs      O      0.353050000000     0.000000000000     0.353050000000     1.33043    
Ogs      O      0.328550000000     0.445100000000     0.445100000000     1.33043    
Si       Si     0.092350000000     0.000000000000     0.184150000000     4          
Oss      O      0.108950000000     0.000000000000     0.250000000000     0.870733   
Oss      O      0.054900000000     0.054900000000     0.171450000000     0.870733   
Si       Si     0.092350000000     0.000000000000     0.315850000000     4          
Ogs      O      0.054900000000     0.445100000000     0.328550000000     1.33043    
Si       Si     0.000000000000     0.092350000000     0.315850000000     4          
Oss      O      0.000000000000     0.108950000000     0.250000000000     0.870733   
Oss      O      0.054900000000     0.054900000000     0.328550000000     0.870733   
Ge       Ge     0.407650000000     0.000000000000     0.315850000000     4          
Ogs      O      0.391050000000     0.000000000000     0.250000000000     1.33043    
Ogs      O      0.445100000000     0.054900000000     0.328550000000     1.33043    
Ge       Ge     0.000000000000     0.407650000000     0.315850000000     4          
Ogg      O      0.000000000000     0.391050000000     0.250000000000     1.73396    
Oss      O      0.445100000000     0.445100000000     0.328550000000     0.870733   
Si       Si     0.407650000000     0.000000000000     0.184150000000     4          
Oss      O      0.445100000000     0.445100000000     0.171450000000     0.870733   
Ge       Ge     0.000000000000     0.407650000000     0.184150000000     4          
Ogs      O      0.054900000000     0.445100000000     0.171450000000     1.33043    
Si       Si     0.000000000000     0.092350000000     0.184150000000     4          
Oss      O      0.445100000000     0.054900000000     0.171450000000     0.870733   
Si       Si     0.184150000000     0.092350000000     0.500000000000     4          
Oss      O      0.250000000000     0.108950000000     0.500000000000     0.870733   
Oss      O      0.146950000000     0.146950000000     0.500000000000     0.870733   
Oss      O      0.171450000000     0.054900000000     0.554900000000     0.870733   
Ge       Ge     0.407650000000     0.184150000000     0.500000000000     4          
Ogs      O      0.391050000000     0.250000000000     0.500000000000     1.33043    
Ogs      O      0.353050000000     0.146950000000     0.500000000000     1.33043    
Ogs      O      0.445100000000     0.171450000000     0.554900000000     1.33043    
Ge       Ge     0.315850000000     0.407650000000     0.500000000000     4          
Ogs      O      0.250000000000     0.391050000000     0.500000000000     1.33043    
Ogs      O      0.353050000000     0.353050000000     0.500000000000     1.33043    
Ogs      O      0.328550000000     0.445100000000     0.554900000000     1.33043    
Si       Si     0.092350000000     0.315850000000     0.500000000000     4          
Oss      O      0.108950000000     0.250000000000     0.500000000000     0.870733   
Oss      O      0.146950000000     0.353050000000     0.500000000000     0.870733   
Ogs      O      0.054900000000     0.328550000000     0.554900000000     1.33043    
Si       Si     0.184150000000     0.407650000000     0.500000000000     4          
Oss      O      0.171450000000     0.445100000000     0.945100000000     0.870733   
Si       Si     0.092350000000     0.184150000000     0.500000000000     4          
Oss      O      0.054900000000     0.171450000000     0.945100000000     0.870733   
Si       Si     0.315850000000     0.092350000000     0.500000000000     4          
Oss      O      0.328550000000     0.054900000000     0.945100000000     0.870733   
Si       Si     0.407650000000     0.315850000000     0.500000000000     4          
Ogs      O      0.445100000000     0.328550000000     0.945100000000     1.33043    
Ge       Ge     0.000000000000     0.184150000000     0.592350000000     4          
Ogg      O      0.000000000000     0.250000000000     0.608950000000     1.73396    
Ogs      O      0.000000000000     0.146950000000     0.646950000000     1.33043    
Ogs      O      0.054900000000     0.171450000000     0.554900000000     1.33043    
Si       Si     0.315850000000     0.000000000000     0.592350000000     4          
Oss      O      0.250000000000     0.000000000000     0.608950000000     0.870733   
Oss      O      0.353050000000     0.000000000000     0.646950000000     0.870733   
Oss      O      0.328550000000     0.054900000000     0.554900000000     0.870733   
Ge       Ge     0.000000000000     0.315850000000     0.592350000000     4          
Ogs      O      0.000000000000     0.353050000000     0.646950000000     1.33043    
Oss      O      0.445100000000     0.328550000000     0.554900000000     0.870733   
Si       Si     0.184150000000     0.000000000000     0.592350000000     4          
Oss      O      0.146950000000     0.000000000000     0.646950000000     0.870733   
Oss      O      0.171450000000     0.445100000000     0.554900000000     0.870733   
Ge       Ge     0.000000000000     0.315850000000     0.907650000000     4          
Ogs      O      0.000000000000     0.250000000000     0.891050000000     1.33043    
Ogs      O      0.000000000000     0.353050000000     0.853050000000     1.33043    
Ogs      O      0.054900000000     0.328550000000     0.945100000000     1.33043    
Ge       Ge     0.184150000000     0.000000000000     0.907650000000     4          
Ogs      O      0.250000000000     0.000000000000     0.891050000000     1.33043    
Ogs      O      0.146950000000     0.000000000000     0.853050000000     1.33043    
Ogs      O      0.171450000000     0.054900000000     0.945100000000     1.33043    
Si       Si     0.000000000000     0.184150000000     0.907650000000     4          
Ogs      O      0.000000000000     0.146950000000     0.853050000000     1.33043    
Oss      O      0.445100000000     0.171450000000     0.945100000000     0.870733   
Si       Si     0.315850000000     0.000000000000     0.907650000000     4          
Oss      O      0.353050000000     0.000000000000     0.853050000000     0.870733   
Oss      O      0.328550000000     0.445100000000     0.945100000000     0.870733   
Si       Si     0.092350000000     0.000000000000     0.684150000000     4          
Oss      O      0.108950000000     0.000000000000     0.750000000000     0.870733   
Oss      O      0.054900000000     0.054900000000     0.671450000000     0.870733   
Si       Si     0.092350000000     0.000000000000     0.815850000000     4          
Oss      O      0.054900000000     0.445100000000     0.828550000000     0.870733   
Ge       Ge     0.000000000000     0.092350000000     0.815850000000     4          
Ogs      O      0.000000000000     0.108950000000     0.750000000000     1.33043    
Ogs      O      0.054900000000     0.054900000000     0.828550000000     1.33043    
Si       Si     0.407650000000     0.000000000000     0.815850000000     4          
Oss      O      0.391050000000     0.000000000000     0.750000000000     0.870733   
Oss      O      0.445100000000     0.054900000000     0.828550000000     0.870733   
Si       Si     0.000000000000     0.407650000000     0.815850000000     4          
Oss      O      0.000000000000     0.391050000000     0.750000000000     0.870733   
Oss      O      0.445100000000     0.445100000000     0.828550000000     0.870733   
Si       Si     0.407650000000     0.000000000000     0.684150000000     4          
Oss      O      0.445100000000     0.445100000000     0.671450000000     0.870733   
Si       Si     0.000000000000     0.407650000000     0.684150000000     4          
Oss      O      0.054900000000     0.445100000000     0.671450000000     0.870733   
Si       Si     0.000000000000     0.092350000000     0.684150000000     4          
Oss      O      0.445100000000     0.054900000000     0.671450000000     0.870733   
Si       Si     0.184150000000     0.592350000000     0.000000000000     4          
Oss      O      0.250000000000     0.608950000000     0.000000000000     0.870733   
Ogs      O      0.146950000000     0.646950000000     0.000000000000     1.33043    
Oss      O      0.171450000000     0.554900000000     0.054900000000     0.870733   
Ge       Ge     0.407650000000     0.684150000000     0.000000000000     4          
Ogs      O      0.391050000000     0.750000000000     0.000000000000     1.33043    
Ogs      O      0.353050000000     0.646950000000     0.000000000000     1.33043    
Ogs      O      0.445100000000     0.671450000000     0.054900000000     1.33043    
Si       Si     0.315850000000     0.907650000000     0.000000000000     4          
Oss      O      0.250000000000     0.891050000000     0.000000000000     0.870733   
Oss      O      0.353050000000     0.853050000000     0.000000000000     0.870733   
Oss      O      0.328550000000     0.945100000000     0.054900000000     0.870733   
Si       Si     0.092350000000     0.815850000000     0.000000000000     4          
Ogs      O      0.108950000000     0.750000000000     0.000000000000     1.33043    
Oss      O      0.146950000000     0.853050000000     0.000000000000     0.870733   
Oss      O      0.054900000000     0.828550000000     0.054900000000     0.870733   
Si       Si     0.184150000000     0.907650000000     0.000000000000     4          
Ogs      O      0.171450000000     0.945100000000     0.445100000000     1.33043    
Ge       Ge     0.092350000000     0.684150000000     0.000000000000     4          
Ogs      O      0.054900000000     0.671450000000     0.445100000000     1.33043    
Si       Si     0.315850000000     0.592350000000     0.000000000000     4          
Oss      O      0.328550000000     0.554900000000     0.445100000000     0.870733   
Si       Si     0.407650000000     0.815850000000     0.000000000000     4          
Oss      O      0.445100000000     0.828550000000     0.445100000000     0.870733   
Si       Si     0.000000000000     0.684150000000     0.092350000000     4          
Oss      O      0.000000000000     0.750000000000     0.108950000000     0.870733   
Oss      O      0.000000000000     0.646950000000     0.146950000000     0.870733   
Ogs      O      0.054900000000     0.671450000000     0.054900000000     1.33043    
Si       Si     0.315850000000     0.500000000000     0.092350000000     4          
Oss      O      0.250000000000     0.500000000000     0.108950000000     0.870733   
Oss      O      0.353050000000     0.500000000000     0.146950000000     0.870733   
Oss      O      0.328550000000     0.554900000000     0.054900000000     0.870733   
Si       Si     0.000000000000     0.815850000000     0.092350000000     4          
Oss      O      0.000000000000     0.853050000000     0.146950000000     0.870733   
Oss      O      0.445100000000     0.828550000000     0.054900000000     0.870733   
Si       Si     0.184150000000     0.500000000000     0.092350000000     4          
Oss      O      0.146950000000     0.500000000000     0.146950000000     0.870733   
Oss      O      0.171450000000     0.945100000000     0.054900000000     0.870733   
Si       Si     0.000000000000     0.815850000000     0.407650000000     4          
Oss      O      0.000000000000     0.750000000000     0.391050000000     0.870733   
Oss      O      0.000000000000     0.853050000000     0.353050000000     0.870733   
Ogs      O      0.054900000000     0.828550000000     0.445100000000     1.33043    
Si       Si     0.184150000000     0.500000000000     0.407650000000     4          
Oss      O      0.250000000000     0.500000000000     0.391050000000     0.870733   
Oss      O      0.146950000000     0.500000000000     0.353050000000     0.870733   
Oss      O      0.171450000000     0.554900000000     0.445100000000     0.870733   
Si       Si     0.000000000000     0.684150000000     0.407650000000     4          
Oss      O      0.000000000000     0.646950000000     0.353050000000     0.870733   
Oss      O      0.445100000000     0.671450000000     0.445100000000     0.870733   
Si       Si     0.315850000000     0.500000000000     0.407650000000     4          
Oss      O      0.353050000000     0.500000000000     0.353050000000     0.870733   
Ogs      O      0.328550000000     0.945100000000     0.445100000000     1.33043    
Si       Si     0.092350000000     0.500000000000     0.184150000000     4          
Oss      O      0.108950000000     0.500000000000     0.250000000000     0.870733   
Oss      O      0.054900000000     0.554900000000     0.171450000000     0.870733   
Si       Si     0.092350000000     0.500000000000     0.315850000000     4          
Oss      O      0.054900000000     0.945100000000     0.328550000000     0.870733   
Si       Si     0.000000000000     0.592350000000     0.315850000000     4          
Oss      O      0.000000000000     0.608950000000     0.250000000000     0.870733   
Oss      O      0.054900000000     0.554900000000     0.328550000000     0.870733   
Si       Si     0.407650000000     0.500000000000     0.315850000000     4          
Oss      O      0.391050000000     0.500000000000     0.250000000000     0.870733   
Oss      O      0.445100000000     0.554900000000     0.328550000000     0.870733   
Si       Si     0.000000000000     0.907650000000     0.315850000000     4          
Oss      O      0.000000000000     0.891050000000     0.250000000000     0.870733   
Ogs      O      0.445100000000     0.945100000000     0.328550000000     1.33043    
Si       Si     0.407650000000     0.500000000000     0.184150000000     4          
Oss      O      0.445100000000     0.945100000000     0.171450000000     0.870733   
Si       Si     0.000000000000     0.907650000000     0.184150000000     4          
Oss      O      0.054900000000     0.945100000000     0.171450000000     0.870733   
Si       Si     0.000000000000     0.592350000000     0.184150000000     4          
Oss      O      0.445100000000     0.554900000000     0.171450000000     0.870733   
Si       Si     0.184150000000     0.592350000000     0.500000000000     4          
Oss      O      0.250000000000     0.608950000000     0.500000000000     0.870733   
Ogs      O      0.146950000000     0.646950000000     0.500000000000     1.33043    
Oss      O      0.171450000000     0.554900000000     0.554900000000     0.870733   
Si       Si     0.407650000000     0.684150000000     0.500000000000     4          
Oss      O      0.391050000000     0.750000000000     0.500000000000     0.870733   
Oss      O      0.353050000000     0.646950000000     0.500000000000     0.870733   
Oss      O      0.445100000000     0.671450000000     0.554900000000     0.870733   
Ge       Ge     0.315850000000     0.907650000000     0.500000000000     4          
Ogs      O      0.250000000000     0.891050000000     0.500000000000     1.33043    
Ogs      O      0.353050000000     0.853050000000     0.500000000000     1.33043    
Ogs      O      0.328550000000     0.945100000000     0.554900000000     1.33043    
Ge       Ge     0.092350000000     0.815850000000     0.500000000000     4          
Ogg      O      0.108950000000     0.750000000000     0.500000000000     1.73396    
Ogs      O      0.146950000000     0.853050000000     0.500000000000     1.33043    
Ogs      O      0.054900000000     0.828550000000     0.554900000000     1.33043    
Si       Si     0.184150000000     0.907650000000     0.500000000000     4          
Ogs      O      0.171450000000     0.945100000000     0.945100000000     1.33043    
Ge       Ge     0.092350000000     0.684150000000     0.500000000000     4          
Ogs      O      0.054900000000     0.671450000000     0.945100000000     1.33043    
Si       Si     0.315850000000     0.592350000000     0.500000000000     4          
Oss      O      0.328550000000     0.554900000000     0.945100000000     0.870733   
Si       Si     0.407650000000     0.815850000000     0.500000000000     4          
Oss      O      0.445100000000     0.828550000000     0.945100000000     0.870733   
Ge       Ge     0.000000000000     0.684150000000     0.592350000000     4          
Ogs      O      0.000000000000     0.750000000000     0.608950000000     1.33043    
Ogs      O      0.000000000000     0.646950000000     0.646950000000     1.33043    
Ogg      O      0.054900000000     0.671450000000     0.554900000000     1.73396    
Si       Si     0.315850000000     0.500000000000     0.592350000000     4          
Oss      O      0.250000000000     0.500000000000     0.608950000000     0.870733   
Oss      O      0.353050000000     0.500000000000     0.646950000000     0.870733   
Oss      O      0.328550000000     0.554900000000     0.554900000000     0.870733   
Si       Si     0.000000000000     0.815850000000     0.592350000000     4          
Oss      O      0.000000000000     0.853050000000     0.646950000000     0.870733   
Oss      O      0.445100000000     0.828550000000     0.554900000000     0.870733   
Si       Si     0.184150000000     0.500000000000     0.592350000000     4          
Oss      O      0.146950000000     0.500000000000     0.646950000000     0.870733   
Oss      O      0.171450000000     0.945100000000     0.554900000000     0.870733   
Si       Si     0.000000000000     0.815850000000     0.907650000000     4          
Oss      O      0.000000000000     0.750000000000     0.891050000000     0.870733   
Oss      O      0.000000000000     0.853050000000     0.853050000000     0.870733   
Oss      O      0.054900000000     0.828550000000     0.945100000000     0.870733   
Si       Si     0.184150000000     0.500000000000     0.907650000000     4          
Oss      O      0.250000000000     0.500000000000     0.891050000000     0.870733   
Oss      O      0.146950000000     0.500000000000     0.853050000000     0.870733   
Oss      O      0.171450000000     0.554900000000     0.945100000000     0.870733   
Si       Si     0.000000000000     0.684150000000     0.907650000000     4          
Oss      O      0.000000000000     0.646950000000     0.853050000000     0.870733   
Ogs      O      0.445100000000     0.671450000000     0.945100000000     1.33043    
Si       Si     0.315850000000     0.500000000000     0.907650000000     4          
Oss      O      0.353050000000     0.500000000000     0.853050000000     0.870733   
Oss      O      0.328550000000     0.945100000000     0.945100000000     0.870733   
Si       Si     0.092350000000     0.500000000000     0.684150000000     4          
Oss      O      0.108950000000     0.500000000000     0.750000000000     0.870733   
Oss      O      0.054900000000     0.554900000000     0.671450000000     0.870733   
Si       Si     0.092350000000     0.500000000000     0.815850000000     4          
Oss      O      0.054900000000     0.945100000000     0.828550000000     0.870733   
Si       Si     0.000000000000     0.592350000000     0.815850000000     4          
Oss      O      0.000000000000     0.608950000000     0.750000000000     0.870733   
Oss      O      0.054900000000     0.554900000000     0.828550000000     0.870733   
Si       Si     0.407650000000     0.500000000000     0.815850000000     4          
Oss      O      0.391050000000     0.500000000000     0.750000000000     0.870733   
Oss      O      0.445100000000     0.554900000000     0.828550000000     0.870733   
Si       Si     0.000000000000     0.907650000000     0.815850000000     4          
Oss      O      0.000000000000     0.891050000000     0.750000000000     0.870733   
Oss      O      0.445100000000     0.945100000000     0.828550000000     0.870733   
Si       Si     0.407650000000     0.500000000000     0.684150000000     4          
Oss      O      0.445100000000     0.945100000000     0.671450000000     0.870733   
Si       Si     0.000000000000     0.907650000000     0.684150000000     4          
Oss      O      0.054900000000     0.945100000000     0.671450000000     0.870733   
Si       Si     0.000000000000     0.592350000000     0.684150000000     4          
Oss      O      0.445100000000     0.554900000000     0.671450000000     0.870733   
Si       Si     0.684150000000     0.092350000000     0.000000000000     4          
Oss      O      0.750000000000     0.108950000000     0.000000000000     0.870733   
Ogs      O      0.646950000000     0.146950000000     0.000000000000     1.33043    
Oss      O      0.671450000000     0.054900000000     0.054900000000     0.870733   
Si       Si     0.907650000000     0.184150000000     0.000000000000     4          
Oss      O      0.891050000000     0.250000000000     0.000000000000     0.870733   
Oss      O      0.853050000000     0.146950000000     0.000000000000     0.870733   
Oss      O      0.945100000000     0.171450000000     0.054900000000     0.870733   
Si       Si     0.815850000000     0.407650000000     0.000000000000     4          
Oss      O      0.750000000000     0.391050000000     0.000000000000     0.870733   
Oss      O      0.853050000000     0.353050000000     0.000000000000     0.870733   
Oss      O      0.828550000000     0.445100000000     0.054900000000     0.870733   
Ge       Ge     0.592350000000     0.315850000000     0.000000000000     4          
Ogg      O      0.608950000000     0.250000000000     0.000000000000     1.73396    
Ogs      O      0.646950000000     0.353050000000     0.000000000000     1.33043    
Ogs      O      0.554900000000     0.328550000000     0.054900000000     1.33043    
Si       Si     0.684150000000     0.407650000000     0.000000000000     4          
Oss      O      0.671450000000     0.445100000000     0.445100000000     0.870733   
Ge       Ge     0.592350000000     0.184150000000     0.000000000000     4          
Oss      O      0.554900000000     0.171450000000     0.445100000000     0.870733   
Si       Si     0.815850000000     0.092350000000     0.000000000000     4          
Oss      O      0.828550000000     0.054900000000     0.445100000000     0.870733   
Si       Si     0.907650000000     0.315850000000     0.000000000000     4          
Oss      O      0.945100000000     0.328550000000     0.445100000000     0.870733   
Si       Si     0.500000000000     0.184150000000     0.092350000000     4          
Oss      O      0.500000000000     0.250000000000     0.108950000000     0.870733   
Oss      O      0.500000000000     0.146950000000     0.146950000000     0.870733   
Ogs      O      0.554900000000     0.171450000000     0.054900000000     1.33043    
Si       Si     0.815850000000     0.000000000000     0.092350000000     4          
Oss      O      0.750000000000     0.000000000000     0.108950000000     0.870733   
Ogs      O      0.853050000000     0.000000000000     0.146950000000     1.33043    
Oss      O      0.828550000000     0.054900000000     0.054900000000     0.870733   
Si       Si     0.500000000000     0.315850000000     0.092350000000     4          
Oss      O      0.500000000000     0.353050000000     0.146950000000     0.870733   
Oss      O      0.945100000000     0.328550000000     0.054900000000     0.870733   
Si       Si     0.684150000000     0.000000000000     0.092350000000     4          
Oss      O      0.646950000000     0.000000000000     0.146950000000     0.870733   
Oss      O      0.671450000000     0.445100000000     0.054900000000     0.870733   
Si       Si     0.500000000000     0.315850000000     0.407650000000     4          
Oss      O      0.500000000000     0.250000000000     0.391050000000     0.870733   
Oss      O      0.500000000000     0.353050000000     0.353050000000     0.870733   
Ogs      O      0.554900000000     0.328550000000     0.445100000000     1.33043    
Si       Si     0.684150000000     0.000000000000     0.407650000000     4          
Oss      O      0.750000000000     0.000000000000     0.391050000000     0.870733   
Oss      O      0.646950000000     0.000000000000     0.353050000000     0.870733   
Oss      O      0.671450000000     0.054900000000     0.445100000000     0.870733   
Si       Si     0.500000000000     0.184150000000     0.407650000000     4          
Oss      O      0.500000000000     0.146950000000     0.353050000000     0.870733   
Oss      O      0.945100000000     0.171450000000     0.445100000000     0.870733   
Si       Si     0.815850000000     0.000000000000     0.407650000000     4          
Oss      O      0.853050000000     0.000000000000     0.353050000000     0.870733   
Oss      O      0.828550000000     0.445100000000     0.445100000000     0.870733   
Si       Si     0.592350000000     0.000000000000     0.184150000000     4          
Oss      O      0.608950000000     0.000000000000     0.250000000000     0.870733   
Oss      O      0.554900000000     0.054900000000     0.171450000000     0.870733   
Si       Si     0.592350000000     0.000000000000     0.315850000000     4          
Oss      O      0.554900000000     0.445100000000     0.328550000000     0.870733   
Si       Si     0.500000000000     0.092350000000     0.315850000000     4          
Oss      O      0.500000000000     0.108950000000     0.250000000000     0.870733   
Oss      O      0.554900000000     0.054900000000     0.328550000000     0.870733   
Si       Si     0.907650000000     0.000000000000     0.315850000000     4          
Ogs      O      0.891050000000     0.000000000000     0.250000000000     1.33043    
Oss      O      0.945100000000     0.054900000000     0.328550000000     0.870733   
Si       Si     0.500000000000     0.407650000000     0.315850000000     4          
Oss      O      0.500000000000     0.391050000000     0.250000000000     0.870733   
Ogs      O      0.945100000000     0.445100000000     0.328550000000     1.33043    
Ge       Ge     0.907650000000     0.000000000000     0.184150000000     4          
Ogs      O      0.945100000000     0.445100000000     0.171450000000     1.33043    
Si       Si     0.500000000000     0.407650000000     0.184150000000     4          
Oss      O      0.554900000000     0.445100000000     0.171450000000     0.870733   
Si       Si     0.500000000000     0.092350000000     0.184150000000     4          
Ogs      O      0.945100000000     0.054900000000     0.171450000000     1.33043    
Si       Si     0.684150000000     0.092350000000     0.500000000000     4          
Oss      O      0.750000000000     0.108950000000     0.500000000000     0.870733   
Oss      O      0.646950000000     0.146950000000     0.500000000000     0.870733   
Oss      O      0.671450000000     0.054900000000     0.554900000000     0.870733   
Si       Si     0.907650000000     0.184150000000     0.500000000000     4          
Oss      O      0.891050000000     0.250000000000     0.500000000000     0.870733   
Oss      O      0.853050000000     0.146950000000     0.500000000000     0.870733   
Ogs      O      0.945100000000     0.171450000000     0.554900000000     1.33043    
Si       Si     0.815850000000     0.407650000000     0.500000000000     4          
Oss      O      0.750000000000     0.391050000000     0.500000000000     0.870733   
Oss      O      0.853050000000     0.353050000000     0.500000000000     0.870733   
Oss      O      0.828550000000     0.445100000000     0.554900000000     0.870733   
Ge       Ge     0.592350000000     0.315850000000     0.500000000000     4          
Ogs      O      0.608950000000     0.250000000000     0.500000000000     1.33043    
Ogs      O      0.646950000000     0.353050000000     0.500000000000     1.33043    
Ogs      O      0.554900000000     0.328550000000     0.554900000000     1.33043    
Si       Si     0.684150000000     0.407650000000     0.500000000000     4          
Oss      O      0.671450000000     0.445100000000     0.945100000000     0.870733   
Si       Si     0.592350000000     0.184150000000     0.500000000000     4          
Ogs      O      0.554900000000     0.171450000000     0.945100000000     1.33043    
Si       Si     0.815850000000     0.092350000000     0.500000000000     4          
Oss      O      0.828550000000     0.054900000000     0.945100000000     0.870733   
Si       Si     0.907650000000     0.315850000000     0.500000000000     4          
Ogs      O      0.945100000000     0.328550000000     0.945100000000     1.33043    
Si       Si     0.500000000000     0.184150000000     0.592350000000     4          
Oss      O      0.500000000000     0.250000000000     0.608950000000     0.870733   
Oss      O      0.500000000000     0.146950000000     0.646950000000     0.870733   
Oss      O      0.554900000000     0.171450000000     0.554900000000     0.870733   
Si       Si     0.815850000000     0.000000000000     0.592350000000     4          
Oss      O      0.750000000000     0.000000000000     0.608950000000     0.870733   
Oss      O      0.853050000000     0.000000000000     0.646950000000     0.870733   
Oss      O      0.828550000000     0.054900000000     0.554900000000     0.870733   
Si       Si     0.500000000000     0.315850000000     0.592350000000     4          
Oss      O      0.500000000000     0.353050000000     0.646950000000     0.870733   
Ogs      O      0.945100000000     0.328550000000     0.554900000000     1.33043    
Si       Si     0.684150000000     0.000000000000     0.592350000000     4          
Oss      O      0.646950000000     0.000000000000     0.646950000000     0.870733   
Ogs      O      0.671450000000     0.445100000000     0.554900000000     1.33043    
Ge       Ge     0.500000000000     0.315850000000     0.907650000000     4          
Ogs      O      0.500000000000     0.250000000000     0.891050000000     1.33043    
Ogs      O      0.500000000000     0.353050000000     0.853050000000     1.33043    
Ogg      O      0.554900000000     0.328550000000     0.945100000000     1.73396    
Si       Si     0.684150000000     0.000000000000     0.907650000000     4          
Oss      O      0.750000000000     0.000000000000     0.891050000000     0.870733   
Oss      O      0.646950000000     0.000000000000     0.853050000000     0.870733   
Oss      O      0.671450000000     0.054900000000     0.945100000000     0.870733   
Si       Si     0.500000000000     0.184150000000     0.907650000000     4          
Oss      O      0.500000000000     0.146950000000     0.853050000000     0.870733   
Oss      O      0.945100000000     0.171450000000     0.945100000000     0.870733   
Si       Si     0.815850000000     0.000000000000     0.907650000000     4          
Oss      O      0.853050000000     0.000000000000     0.853050000000     0.870733   
Oss      O      0.828550000000     0.445100000000     0.945100000000     0.870733   
Si       Si     0.592350000000     0.000000000000     0.684150000000     4          
Oss      O      0.608950000000     0.000000000000     0.750000000000     0.870733   
Oss      O      0.554900000000     0.054900000000     0.671450000000     0.870733   
Si       Si     0.592350000000     0.000000000000     0.815850000000     4          
Oss      O      0.554900000000     0.445100000000     0.828550000000     0.870733   
Si       Si     0.500000000000     0.092350000000     0.815850000000     4          
Oss      O      0.500000000000     0.108950000000     0.750000000000     0.870733   
Oss      O      0.554900000000     0.054900000000     0.828550000000     0.870733   
Si       Si     0.907650000000     0.000000000000     0.815850000000     4          
Oss      O      0.891050000000     0.000000000000     0.750000000000     0.870733   
Ogs      O      0.945100000000     0.054900000000     0.828550000000     1.33043    
Si       Si     0.500000000000     0.407650000000     0.815850000000     4          
Oss      O      0.500000000000     0.391050000000     0.750000000000     0.870733   
Ogs      O      0.945100000000     0.445100000000     0.828550000000     1.33043    
Si       Si     0.907650000000     0.000000000000     0.684150000000     4          
Oss      O      0.945100000000     0.445100000000     0.671450000000     0.870733   
Si       Si     0.500000000000     0.407650000000     0.684150000000     4          
Oss      O      0.554900000000     0.445100000000     0.671450000000     0.870733   
Si       Si     0.500000000000     0.092350000000     0.684150000000     4          
Oss      O      0.945100000000     0.054900000000     0.671450000000     0.870733   
Ge       Ge     0.684150000000     0.592350000000     0.000000000000     4          
Ogs      O      0.750000000000     0.608950000000     0.000000000000     1.33043    
Ogg      O      0.646950000000     0.646950000000     0.000000000000     1.73396    
Ogs      O      0.671450000000     0.554900000000     0.054900000000     1.33043    
Si       Si     0.907650000000     0.684150000000     0.000000000000     4          
Ogs      O      0.891050000000     0.750000000000     0.000000000000     1.33043    
Oss      O      0.853050000000     0.646950000000     0.000000000000     0.870733   
Oss      O      0.945100000000     0.671450000000     0.054900000000     0.870733   
Si       Si     0.815850000000     0.907650000000     0.000000000000     4          
Ogs      O      0.750000000000     0.891050000000     0.000000000000     1.33043    
Ogs      O      0.853050000000     0.853050000000     0.000000000000     1.33043    
Oss      O      0.828550000000     0.945100000000     0.054900000000     0.870733   
Si       Si     0.592350000000     0.815850000000     0.000000000000     4          
Ogs      O      0.608950000000     0.750000000000     0.000000000000     1.33043    
Ogs      O      0.646950000000     0.853050000000     0.000000000000     1.33043    
Oss      O      0.554900000000     0.828550000000     0.054900000000     0.870733   
Ge       Ge     0.684150000000     0.907650000000     0.000000000000     4          
Ogs      O      0.671450000000     0.945100000000     0.445100000000     1.33043    
Ge       Ge     0.592350000000     0.684150000000     0.000000000000     4          
Oss      O      0.554900000000     0.671450000000     0.445100000000     0.870733   
Si       Si     0.815850000000     0.592350000000     0.000000000000     4          
Ogs      O      0.828550000000     0.554900000000     0.445100000000     1.33043    
Ge       Ge     0.907650000000     0.815850000000     0.000000000000     4          
Oss      O      0.945100000000     0.828550000000     0.445100000000     0.870733   
Si       Si     0.500000000000     0.684150000000     0.092350000000     4          
Oss      O      0.500000000000     0.750000000000     0.108950000000     0.870733   
Oss      O      0.500000000000     0.646950000000     0.146950000000     0.870733   
Ogs      O      0.554900000000     0.671450000000     0.054900000000     1.33043    
Si       Si     0.815850000000     0.500000000000     0.092350000000     4          
Oss      O      0.750000000000     0.500000000000     0.108950000000     0.870733   
Oss      O      0.853050000000     0.500000000000     0.146950000000     0.870733   
Oss      O      0.828550000000     0.554900000000     0.054900000000     0.870733   
Si       Si     0.500000000000     0.815850000000     0.092350000000     4          
Oss      O      0.500000000000     0.853050000000     0.146950000000     0.870733   
Ogs      O      0.945100000000     0.828550000000     0.054900000000     1.33043    
Si       Si     0.684150000000     0.500000000000     0.092350000000     4          
Oss      O      0.646950000000     0.500000000000     0.146950000000     0.870733   
Ogs      O      0.671450000000     0.945100000000     0.054900000000     1.33043    
Si       Si     0.500000000000     0.815850000000     0.407650000000     4          
Oss      O      0.500000000000     0.750000000000     0.391050000000     0.870733   
Oss      O      0.500000000000     0.853050000000     0.353050000000     0.870733   
Oss      O      0.554900000000     0.828550000000     0.445100000000     0.870733   
Si       Si     0.684150000000     0.500000000000     0.407650000000     4          
Oss      O      0.750000000000     0.500000000000     0.391050000000     0.870733   
Oss      O      0.646950000000     0.500000000000     0.353050000000     0.870733   
Oss      O      0.671450000000     0.554900000000     0.445100000000     0.870733   
Si       Si     0.500000000000     0.684150000000     0.407650000000     4          
Oss      O      0.500000000000     0.646950000000     0.353050000000     0.870733   
Oss      O      0.945100000000     0.671450000000     0.445100000000     0.870733   
Si       Si     0.815850000000     0.500000000000     0.407650000000     4          
Oss      O      0.853050000000     0.500000000000     0.353050000000     0.870733   
Oss      O      0.828550000000     0.945100000000     0.445100000000     0.870733   
Si       Si     0.592350000000     0.500000000000     0.184150000000     4          
Oss      O      0.608950000000     0.500000000000     0.250000000000     0.870733   
Oss      O      0.554900000000     0.554900000000     0.171450000000     0.870733   
Si       Si     0.592350000000     0.500000000000     0.315850000000     4          
Oss      O      0.554900000000     0.945100000000     0.328550000000     0.870733   
Si       Si     0.500000000000     0.592350000000     0.315850000000     4          
Oss      O      0.500000000000     0.608950000000     0.250000000000     0.870733   
Oss      O      0.554900000000     0.554900000000     0.328550000000     0.870733   
Si       Si     0.907650000000     0.500000000000     0.315850000000     4          
Oss      O      0.891050000000     0.500000000000     0.250000000000     0.870733   
Oss      O      0.945100000000     0.554900000000     0.328550000000     0.870733   
Si       Si     0.500000000000     0.907650000000     0.315850000000     4          
Oss      O      0.500000000000     0.891050000000     0.250000000000     0.870733   
Oss      O      0.945100000000     0.945100000000     0.328550000000     0.870733   
Si       Si     0.907650000000     0.500000000000     0.184150000000     4          
Ogs      O      0.945100000000     0.945100000000     0.171450000000     1.33043    
Si       Si     0.500000000000     0.907650000000     0.184150000000     4          
Oss      O      0.554900000000     0.945100000000     0.171450000000     0.870733   
Si       Si     0.500000000000     0.592350000000     0.184150000000     4          
Oss      O      0.945100000000     0.554900000000     0.171450000000     0.870733   
Si       Si     0.684150000000     0.592350000000     0.500000000000     4          
Ogs      O      0.750000000000     0.608950000000     0.500000000000     1.33043    
Oss      O      0.646950000000     0.646950000000     0.500000000000     0.870733   
Ogs      O      0.671450000000     0.554900000000     0.554900000000     1.33043    
Si       Si     0.907650000000     0.684150000000     0.500000000000     4          
Oss      O      0.891050000000     0.750000000000     0.500000000000     0.870733   
Ogs      O      0.853050000000     0.646950000000     0.500000000000     1.33043    
Ogs      O      0.945100000000     0.671450000000     0.554900000000     1.33043    
Si       Si     0.815850000000     0.907650000000     0.500000000000     4          
Ogs      O      0.750000000000     0.891050000000     0.500000000000     1.33043    
Oss      O      0.853050000000     0.853050000000     0.500000000000     0.870733   
Oss      O      0.828550000000     0.945100000000     0.554900000000     0.870733   
Si       Si     0.592350000000     0.815850000000     0.500000000000     4          
Oss      O      0.608950000000     0.750000000000     0.500000000000     0.870733   
Ogs      O      0.646950000000     0.853050000000     0.500000000000     1.33043    
Oss      O      0.554900000000     0.828550000000     0.554900000000     0.870733   
Ge       Ge     0.684150000000     0.907650000000     0.500000000000     4          
Ogs      O      0.671450000000     0.945100000000     0.945100000000     1.33043    
Si       Si     0.592350000000     0.684150000000     0.500000000000     4          
Ogs      O      0.554900000000     0.671450000000     0.945100000000     1.33043    
Ge       Ge     0.815850000000     0.592350000000     0.500000000000     4          
Oss      O      0.828550000000     0.554900000000     0.945100000000     0.870733   
Si       Si     0.907650000000     0.815850000000     0.500000000000     4          
Ogs      O      0.945100000000     0.828550000000     0.945100000000     1.33043    
Si       Si     0.500000000000     0.684150000000     0.592350000000     4          
Oss      O      0.500000000000     0.750000000000     0.608950000000     0.870733   
Oss      O      0.500000000000     0.646950000000     0.646950000000     0.870733   
Oss      O      0.554900000000     0.671450000000     0.554900000000     0.870733   
Si       Si     0.815850000000     0.500000000000     0.592350000000     4          
Ogs      O      0.750000000000     0.500000000000     0.608950000000     1.33043    
Oss      O      0.853050000000     0.500000000000     0.646950000000     0.870733   
Ogs      O      0.828550000000     0.554900000000     0.554900000000     1.33043    
Si       Si     0.500000000000     0.815850000000     0.592350000000     4          
Oss      O      0.500000000000     0.853050000000     0.646950000000     0.870733   
Oss      O      0.945100000000     0.828550000000     0.554900000000     0.870733   
Ge       Ge     0.684150000000     0.500000000000     0.592350000000     4          
Ogs      O      0.646950000000     0.500000000000     0.646950000000     1.33043    
Ogs      O      0.671450000000     0.945100000000     0.554900000000     1.33043    
Si       Si     0.500000000000     0.815850000000     0.907650000000     4          
Oss      O      0.500000000000     0.750000000000     0.891050000000     0.870733   
Oss      O      0.500000000000     0.853050000000     0.853050000000     0.870733   
Oss      O      0.554900000000     0.828550000000     0.945100000000     0.870733   
Si       Si     0.684150000000     0.500000000000     0.907650000000     4          
Oss      O      0.750000000000     0.500000000000     0.891050000000     0.870733   
Oss      O      0.646950000000     0.500000000000     0.853050000000     0.870733   
Ogs      O      0.671450000000     0.554900000000     0.945100000000     1.33043    
Si       Si     0.500000000000     0.684150000000     0.907650000000     4          
Oss      O      0.500000000000     0.646950000000     0.853050000000     0.870733   
Oss      O      0.945100000000     0.671450000000     0.945100000000     0.870733   
Si       Si     0.815850000000     0.500000000000     0.907650000000     4          
Ogs      O      0.853050000000     0.500000000000     0.853050000000     1.33043    
Oss      O      0.828550000000     0.945100000000     0.945100000000     0.870733   
Si       Si     0.592350000000     0.500000000000     0.684150000000     4          
Oss      O      0.608950000000     0.500000000000     0.750000000000     0.870733   
Oss      O      0.554900000000     0.554900000000     0.671450000000     0.870733   
Si       Si     0.592350000000     0.500000000000     0.815850000000     4          
Oss      O      0.554900000000     0.945100000000     0.828550000000     0.870733   
Si       Si     0.500000000000     0.592350000000     0.815850000000     4          
Oss      O      0.500000000000     0.608950000000     0.750000000000     0.870733   
Oss      O      0.554900000000     0.554900000000     0.828550000000     0.870733   
Ge       Ge     0.907650000000     0.500000000000     0.815850000000     4          
Ogs      O      0.891050000000     0.500000000000     0.750000000000     1.33043    
Ogs      O      0.945100000000     0.554900000000     0.828550000000     1.33043    
Si       Si     0.500000000000     0.907650000000     0.815850000000     4          
Oss      O      0.500000000000     0.891050000000     0.750000000000     0.870733   
Oss      O      0.945100000000     0.945100000000     0.828550000000     0.870733   
Si       Si     0.907650000000     0.500000000000     0.684150000000     4          
Oss      O      0.945100000000     0.945100000000     0.671450000000     0.870733   
Si       Si     0.500000000000     0.907650000000     0.684150000000     4          
Oss      O      0.554900000000     0.945100000000     0.671450000000     0.870733   
Si       Si     0.500000000000     0.592350000000     0.684150000000     4          
Oss      O      0.945100000000     0.554900000000     0.671450000000     0.870733   
shOgg    H      0.003594463886     0.393832568813     0.250672161536    -3.73396    
shOgg    H      0.001965918958     0.251533651786     0.609888255751    -3.73396    
shOgg    H      0.109372483791     0.753629173353     0.501419504192    -3.73396    
shOgg    H      0.056428667222     0.672926154774     0.555431047727    -3.73396    
shOgg    H      0.611577871140     0.251825570108     0.001549182143    -3.73396    
shOgg    H      0.558454218040     0.330236535256     0.945932005711    -3.73396    
shOgg    H      0.647386879036     0.650901048367     0.002872763072    -3.73396    
shOss    H      0.251322472046     0.110066125896     0.004208203823    -2.87073    
shOss    H      0.149860170426     0.149266264130     0.003714043397    -2.87073    
shOss    H      0.171482082415     0.055634912094     0.058610561366    -2.87073    
shOss    H      0.394910768938     0.250119212270     0.000169510332    -2.87073    
shOss    H      0.354963959003     0.148334194937     0.002526100806    -2.87073    
shOss    H      0.447236941622     0.173314658460     0.056354834781    -2.87073    
shOss    H      0.253581583959     0.392182742173     0.004060482279    -2.87073    
shOss    H      0.354404077628     0.353239477634     0.000013904884    -2.87073    
shOss    H      0.331340675844     0.447547903470     0.057794932724    -2.87073    
shOss    H      0.111906488009     0.253795690333     0.002603713802    -2.87073    
shOss    H      0.151028768123     0.356657762638     0.001803428511    -2.87073    
shOss    H      0.054946438040     0.330021592928     0.058560187548    -2.87073    
shOss    H      0.172987949317     0.447209212213     0.445222217462    -2.87073    
shOss    H      0.059000592085     0.172059095328     0.448685070903    -2.87073    
shOss    H      0.329855348495     0.058172751558     0.446132403680    -2.87073    
shOss    H      0.446800634997     0.330729436477     0.446180340648    -2.87073    
shOss    H      0.003194572626     0.253535096835     0.111407212219    -2.87073    
shOss    H      0.003849482553     0.149480946347     0.147354144948    -2.87073    
shOss    H      0.055629627787     0.172516476092     0.056245296181    -2.87073    
shOss    H      0.251455126585     0.003050139972     0.109537991661    -2.87073    
shOss    H      0.356172391376     0.002616823098     0.148173036489    -2.87073    
shOss    H      0.329887298484     0.057001405222     0.056827444369    -2.87073    
shOss    H      0.447548576030     0.331337083618     0.058746281775    -2.87073    
shOss    H      0.148052379650     0.003655174461     0.149562235285    -2.87073    
shOss    H      0.171574029579     0.447250552544     0.056110891294    -2.87073    
shOss    H      0.001049895120     0.252908208342     0.394224336063    -2.87073    
shOss    H      0.057025536264     0.330265302257     0.445519134275    -2.87073    
shOss    H      0.000742978789     0.147637532676     0.353726344881    -2.87073    
shOss    H      0.108980453039     0.000900447042     0.251870775607    -2.87073    
shOss    H      0.056062453987     0.055135078798     0.174237750176    -2.87073    
shOss    H      0.003451703986     0.110246173949     0.252471017282    -2.87073    
shOss    H      0.056277435334     0.056984724941     0.331918779437    -2.87073    
shOss    H      0.447646240951     0.446442367120     0.330579758799    -2.87073    
shOss    H      0.447946224886     0.448802454003     0.174681007286    -2.87073    
shOss    H      0.446397142429     0.056143103412     0.172744922273    -2.87073    
shOss    H      0.254029092642     0.110583114802     0.503361817810    -2.87073    
shOss    H      0.148733931562     0.148058272466     0.503490692113    -2.87073    
shOss    H      0.171940176939     0.056813114561     0.557446352119    -2.87073    
shOss    H      0.110007458061     0.252767349960     0.503601001235    -2.87073    
shOss    H      0.147371029981     0.356229745210     0.500037429761    -2.87073    
shOss    H      0.172122980706     0.445722556598     0.945120339974    -2.87073    
shOss    H      0.057032420749     0.173122334785     0.946441057592    -2.87073    
shOss    H      0.328811364798     0.057096412657     0.945595013379    -2.87073    
shOss    H      0.251048425579     0.000170018414     0.611809870553    -2.87073    
shOss    H      0.356833437909     0.001893131163     0.649977781546    -2.87073    
shOss    H      0.331959596646     0.057577720291     0.558177120516    -2.87073    
shOss    H      0.446556767861     0.330323911035     0.556302315451    -2.87073    
shOss    H      0.147309173363     0.003667361263     0.651111513395    -2.87073    
shOss    H      0.174369186736     0.446072758790     0.555720047750    -2.87073    
shOss    H      0.447549920629     0.172244129824     0.947530523899    -2.87073    
shOss    H      0.356104676238     0.001275288886     0.853716675455    -2.87073    
shOss    H      0.331481766073     0.448114866675     0.945390770003    -2.87073    
shOss    H      0.109857159928     0.000282237699     0.752959187942    -2.87073    
shOss    H      0.056682392648     0.057332242139     0.674315351871    -2.87073    
shOss    H      0.057191908113     0.446038792567     0.828565758744    -2.87073    
shOss    H      0.391344677325     0.003494383993     0.752265968557    -2.87073    
shOss    H      0.449118307001     0.059001736272     0.830990788727    -2.87073    
shOss    H      0.000583895078     0.391973751397     0.751594891200    -2.87073    
shOss    H      0.445170444736     0.446231676773     0.831542151862    -2.87073    
shOss    H      0.448004122336     0.446145562822     0.675281082068    -2.87073    
shOss    H      0.058676053411     0.445263572001     0.673263756882    -2.87073    
shOss    H      0.447994335839     0.058306631120     0.673024895726    -2.87073    
shOss    H      0.252173375720     0.612227766132     0.000874711807    -2.87073    
shOss    H      0.171948757964     0.555590030389     0.058494310357    -2.87073    
shOss    H      0.251609024075     0.894188552378     0.000797869760    -2.87073    
shOss    H      0.356033528212     0.857160767538     0.003663395137    -2.87073    
shOss    H      0.329205110412     0.947396652455     0.057900637221    -2.87073    
shOss    H      0.150462250330     0.854230697621     0.001719666117    -2.87073    
shOss    H      0.057480110347     0.829882757356     0.054962318678    -2.87073    
shOss    H      0.329839451119     0.557007848324     0.449238073461    -2.87073    
shOss    H      0.448729646256     0.832623427212     0.445307361731    -2.87073    
shOss    H      0.001216506114     0.750978226916     0.111887966076    -2.87073    
shOss    H      0.000793646346     0.649205028111     0.150471068008    -2.87073    
shOss    H      0.250303219834     0.502993271471     0.110551116890    -2.87073    
shOss    H      0.353512148946     0.500492358533     0.150096930550    -2.87073    
shOss    H      0.331284646471     0.555531306497     0.056794540474    -2.87073    
shOss    H      0.001578593720     0.857129754889     0.148605733852    -2.87073    
shOss    H      0.448213895398     0.830404724723     0.058783582545    -2.87073    
shOss    H      0.150498313053     0.500213665662     0.150219550656    -2.87073    
shOss    H      0.171696349111     0.948984636001     0.055494608732    -2.87073    
shOss    H      0.003292076618     0.754070196097     0.392661452680    -2.87073    
shOss    H      0.000880417282     0.853969905850     0.353760418292    -2.87073    
shOss    H      0.250635485648     0.503585078351     0.394074674255    -2.87073    
shOss    H      0.147534940513     0.503855725429     0.353565103051    -2.87073    
shOss    H      0.174643819493     0.556783132527     0.448115497727    -2.87073    
shOss    H      0.001384367722     0.649953912147     0.355969411054    -2.87073    
shOss    H      0.447621274904     0.672465330586     0.446737846912    -2.87073    
shOss    H      0.353518492135     0.500535650511     0.354213472715    -2.87073    
shOss    H      0.109434241989     0.504196318627     0.253428696991    -2.87073    
shOss    H      0.058999682574     0.555569225757     0.175491237073    -2.87073    
shOss    H      0.056796931509     0.945972328537     0.332403270602    -2.87073    
shOss    H      0.000296304582     0.610530329289     0.254134652304    -2.87073    
shOss    H      0.056058175785     0.558817189969     0.328825349903    -2.87073    
shOss    H      0.393615487876     0.504088473846     0.251430406268    -2.87073    
shOss    H      0.448757307741     0.558522482808     0.332583811906    -2.87073    
shOss    H      0.001052039883     0.894933093455     0.252688148458    -2.87073    
shOss    H      0.446936833158     0.948738761756     0.171492081274    -2.87073    
shOss    H      0.057095416804     0.946077974593     0.174932045240    -2.87073    
shOss    H      0.449043700654     0.557299720601     0.172719516145    -2.87073    
shOss    H      0.252743466527     0.610853034628     0.501753537869    -2.87073    
shOss    H      0.175593379727     0.555046531386     0.555309912045    -2.87073    
shOss    H      0.393590567223     0.751186889781     0.502463622655    -2.87073    
shOss    H      0.356580103247     0.648820782576     0.503794331872    -2.87073    
shOss    H      0.446350214455     0.674973207462     0.556138764334    -2.87073    
shOss    H      0.331620504274     0.555432335135     0.948233058856    -2.87073    
shOss    H      0.446364163972     0.830693150362     0.946891939458    -2.87073    
shOss    H      0.253783671738     0.502684828289     0.612359545105    -2.87073    
shOss    H      0.355143229551     0.502060826984     0.648687725896    -2.87073    
shOss    H      0.332669837142     0.556403501595     0.556523238406    -2.87073    
shOss    H      0.002097542827     0.857121707259     0.649583333251    -2.87073    
shOss    H      0.448326301045     0.829196650319     0.556381525046    -2.87073    
shOss    H      0.148746980303     0.500192497367     0.650618768862    -2.87073    
shOss    H      0.175360003064     0.948942276734     0.556954955945    -2.87073    
shOss    H      0.001585158076     0.753904954154     0.892381055443    -2.87073    
shOss    H      0.001787242453     0.853425900536     0.855792837295    -2.87073    
shOss    H      0.057511904338     0.831628708785     0.946506131193    -2.87073    
shOss    H      0.250531158821     0.501325196893     0.894489754669    -2.87073    
shOss    H      0.149059288320     0.503124159059     0.856313603958    -2.87073    
shOss    H      0.173497094794     0.558698270149     0.948803545498    -2.87073    
shOss    H      0.000054494518     0.648643945805     0.854071132376    -2.87073    
shOss    H      0.354130753002     0.502368065398     0.856063183005    -2.87073    
shOss    H      0.332313492561     0.945495180130     0.946040707335    -2.87073    
shOss    H      0.111627749769     0.503886090440     0.752549893919    -2.87073    
shOss    H      0.055110971512     0.555690421504     0.674547142110    -2.87073    
shOss    H      0.058056177717     0.946628118617     0.832301401909    -2.87073    
shOss    H      0.001434098798     0.611240747989     0.753549781567    -2.87073    
shOss    H      0.058466245908     0.555926347101     0.832709615058    -2.87073    
shOss    H      0.392224079416     0.503228007479     0.751847694394    -2.87073    
shOss    H      0.446445143939     0.556608714159     0.832011177133    -2.87073    
shOss    H      0.003891526323     0.893766108367     0.753823663646    -2.87073    
shOss    H      0.447363698254     0.946507151828     0.830827128999    -2.87073    
shOss    H      0.446807801933     0.947289840973     0.672834136326    -2.87073    
shOss    H      0.056973278615     0.947181900284     0.674769855336    -2.87073    
shOss    H      0.447430945503     0.558960959806     0.671999366160    -2.87073    
shOss    H      0.753103502249     0.110992067681     0.003319785871    -2.87073    
shOss    H      0.673030681661     0.055167417966     0.058931431796    -2.87073    
shOss    H      0.892836451533     0.251022936486     0.004119193316    -2.87073    
shOss    H      0.853892492115     0.150323610634     0.003730086570    -2.87073    
shOss    H      0.945535283440     0.171903420886     0.055846818656    -2.87073    
shOss    H      0.752070308145     0.391864225868     0.002555283287    -2.87073    
shOss    H      0.855117846681     0.356352464732     0.002774325375    -2.87073    
shOss    H      0.832178016394     0.445288464595     0.057888351289    -2.87073    
shOss    H      0.675354564189     0.445684098469     0.445656328186    -2.87073    
shOss    H      0.556221375653     0.173748399257     0.445335004347    -2.87073    
shOss    H      0.832637664182     0.058249430838     0.447496542647    -2.87073    
shOss    H      0.945200215217     0.329979097991     0.448033669074    -2.87073    
shOss    H      0.503920593749     0.252154130195     0.112549792647    -2.87073    
shOss    H      0.503501497819     0.149177003756     0.148763376200    -2.87073    
shOss    H      0.751129585864     0.000735090364     0.109496301572    -2.87073    
shOss    H      0.830592876912     0.057584057794     0.055055253762    -2.87073    
shOss    H      0.501310191369     0.356290281767     0.149466758692    -2.87073    
shOss    H      0.945176677860     0.332656670149     0.058983094469    -2.87073    
shOss    H      0.647229400388     0.003648304629     0.148049479486    -2.87073    
shOss    H      0.672510977489     0.446590640786     0.056292687458    -2.87073    
shOss    H      0.501638803483     0.253377464323     0.394748636119    -2.87073    
shOss    H      0.503607590822     0.355582139183     0.356415569593    -2.87073    
shOss    H      0.753311984379     0.001549520727     0.391826620472    -2.87073    
shOss    H      0.647559012352     0.004184771986     0.353665836004    -2.87073    
shOss    H      0.672304593544     0.058496437006     0.448912340118    -2.87073    
shOss    H      0.501771349449     0.149421117355     0.356945047472    -2.87073    
shOss    H      0.948537268837     0.171656697349     0.448157672873    -2.87073    
shOss    H      0.854995590786     0.002802676612     0.353502758674    -2.87073    
shOss    H      0.831140938234     0.445250734910     0.445863505965    -2.87073    
shOss    H      0.611795078065     0.003878070956     0.253161324391    -2.87073    
shOss    H      0.559052406051     0.057709089159     0.173169790387    -2.87073    
shOss    H      0.557559295906     0.447255741674     0.332125026469    -2.87073    
shOss    H      0.502450094294     0.110147440102     0.251990925634    -2.87073    
shOss    H      0.555901560826     0.056075616271     0.332269972456    -2.87073    
shOss    H      0.946232891152     0.055816041963     0.329303925285    -2.87073    
shOss    H      0.501046666123     0.394574142847     0.252001280797    -2.87073    
shOss    H      0.558262493328     0.447517671295     0.175230441953    -2.87073    
shOss    H      0.753754946192     0.109601135609     0.503882347119    -2.87073    
shOss    H      0.648239401261     0.150017472184     0.503563572945    -2.87073    
shOss    H      0.671917371875     0.057281074793     0.555739353800    -2.87073    
shOss    H      0.894830343208     0.252348080504     0.502072790523    -2.87073    
shOss    H      0.854271227792     0.147797725981     0.502174853173    -2.87073    
shOss    H      0.752045996444     0.391441624699     0.503444810770    -2.87073    
shOss    H      0.855042884683     0.354303481229     0.503382412868    -2.87073    
shOss    H      0.831404036954     0.448583894844     0.555982265025    -2.87073    
shOss    H      0.671719799247     0.447552625277     0.947472439995    -2.87073    
shOss    H      0.828556023348     0.056994510353     0.945894028985    -2.87073    
shOss    H      0.500715492128     0.254099809874     0.612467827130    -2.87073    
shOss    H      0.503235924505     0.149346309830     0.650507200991    -2.87073    
shOss    H      0.554952273394     0.172638827502     0.558952969173    -2.87073    
shOss    H      0.753853348975     0.004159674248     0.609502776175    -2.87073    
shOss    H      0.854577909270     0.002907674338     0.647410436618    -2.87073    
shOss    H      0.830980597299     0.058393798426     0.556438540512    -2.87073    
shOss    H      0.501381785596     0.356602268203     0.649526458020    -2.87073    
shOss    H      0.650071620161     0.003231857975     0.647210051564    -2.87073    
shOss    H      0.754139486607     0.001447935836     0.893756418814    -2.87073    
shOss    H      0.650527874430     0.000007406180     0.855724301255    -2.87073    
shOss    H      0.671661187622     0.058907979481     0.947838556868    -2.87073    
shOss    H      0.502134412190     0.150556882817     0.854544125435    -2.87073    
shOss    H      0.946933451710     0.174815300675     0.947225998188    -2.87073    
shOss    H      0.856380163552     0.001975230929     0.856220332918    -2.87073    
shOss    H      0.832387298076     0.446800177862     0.948235466191    -2.87073    
shOss    H      0.612313386306     0.000272172084     0.751949723502    -2.87073    
shOss    H      0.557857289697     0.055474837256     0.672456421243    -2.87073    
shOss    H      0.557925015266     0.447257497448     0.829542379253    -2.87073    
shOss    H      0.500298231297     0.110264611062     0.750214215837    -2.87073    
shOss    H      0.558426046513     0.056633326760     0.831751712012    -2.87073    
shOss    H      0.895196153850     0.000383211077     0.752377182814    -2.87073    
shOss    H      0.501767430129     0.391101803741     0.754156425291    -2.87073    
shOss    H      0.945503160248     0.446710651019     0.671952856256    -2.87073    
shOss    H      0.555676611205     0.447136285856     0.674350039718    -2.87073    
shOss    H      0.948712939777     0.057911428814     0.673078716021    -2.87073    
shOss    H      0.854727018538     0.650766727052     0.001310657752    -2.87073    
shOss    H      0.947722298693     0.675030023047     0.058525324594    -2.87073    
shOss    H      0.830804001856     0.948652857253     0.054900864952    -2.87073    
shOss    H      0.555927155005     0.831826711759     0.057297679895    -2.87073    
shOss    H      0.557470463927     0.674201350727     0.448259134980    -2.87073    
shOss    H      0.945989105918     0.830309929896     0.446315479121    -2.87073    
shOss    H      0.503253257347     0.752487229257     0.110891469286    -2.87073    
shOss    H      0.502878357132     0.649665587185     0.148261295490    -2.87073    
shOss    H      0.751272976294     0.503591262939     0.111561053121    -2.87073    
shOss    H      0.854936894382     0.502327799622     0.149029896111    -2.87073    
shOss    H      0.828863465425     0.557395420983     0.058735042698    -2.87073    
shOss    H      0.501274397172     0.854529750423     0.149139575432    -2.87073    
shOss    H      0.650941129591     0.503941157210     0.147796503558    -2.87073    
shOss    H      0.501316470591     0.753401128069     0.393022625042    -2.87073    
shOss    H      0.501836887829     0.855921684448     0.355267503662    -2.87073    
shOss    H      0.556354719003     0.830251126625     0.446150635962    -2.87073    
shOss    H      0.751434119742     0.501832465127     0.394226714189    -2.87073    
shOss    H      0.650079295060     0.503352529132     0.355849573624    -2.87073    
shOss    H      0.672605841881     0.557717476920     0.448442138560    -2.87073    
shOss    H      0.503875691709     0.647051314558     0.353854045228    -2.87073    
shOss    H      0.948744250605     0.674645782796     0.448015511793    -2.87073    
shOss    H      0.854611289367     0.502503001840     0.355669724724    -2.87073    
shOss    H      0.831843435389     0.949066028221     0.445704206908    -2.87073    
shOss    H      0.609979009630     0.502806666692     0.253145362411    -2.87073    
shOss    H      0.555961036350     0.558159343949     0.174044516340    -2.87073    
shOss    H      0.559009317076     0.948186059452     0.330066753444    -2.87073    
shOss    H      0.503915569809     0.611157269951     0.250595665311    -2.87073    
shOss    H      0.556653316450     0.555200068732     0.329135613915    -2.87073    
shOss    H      0.891167602770     0.503062862939     0.253597935915    -2.87073    
shOss    H      0.947157642269     0.557038435110     0.328710940046    -2.87073    
shOss    H      0.503380603689     0.891287318560     0.251393507138    -2.87073    
shOss    H      0.947980851221     0.947678058281     0.330804125394    -2.87073    
shOss    H      0.555388066500     0.948010185975     0.173966405289    -2.87073    
shOss    H      0.948448671620     0.556069563757     0.173137543694    -2.87073    
shOss    H      0.648570097909     0.649575165538     0.501959253594    -2.87073    
shOss    H      0.893386868461     0.753652356377     0.500532159310    -2.87073    
shOss    H      0.854039807106     0.853619015148     0.502002901722    -2.87073    
shOss    H      0.831662346652     0.948686756792     0.556814850246    -2.87073    
shOss    H      0.611106154471     0.752002500908     0.503679587931    -2.87073    
shOss    H      0.559056666587     0.831063917031     0.555582354570    -2.87073    
shOss    H      0.828771326870     0.557787890723     0.946756873653    -2.87073    
shOss    H      0.502502291822     0.753283457137     0.611541537155    -2.87073    
shOss    H      0.503840482883     0.648638775908     0.647755298563    -2.87073    
shOss    H      0.555654998807     0.672061060436     0.558639779365    -2.87073    
shOss    H      0.855120089028     0.502720976300     0.647700503601    -2.87073    
shOss    H      0.501495023416     0.857003055924     0.650472767409    -2.87073    
shOss    H      0.947549738234     0.830669037735     0.556991317665    -2.87073    
shOss    H      0.500735228841     0.751819885874     0.894271196474    -2.87073    
shOss    H      0.503479656465     0.854271731446     0.853156093802    -2.87073    
shOss    H      0.558507138707     0.830003821805     0.948327258976    -2.87073    
shOss    H      0.750778996831     0.500417308417     0.894469517164    -2.87073    
shOss    H      0.648404456040     0.501743343965     0.856317620801    -2.87073    
shOss    H      0.501246635449     0.648245384484     0.855915726487    -2.87073    
shOss    H      0.945400220119     0.674216862065     0.948380567460    -2.87073    
shOss    H      0.832122906613     0.948393158532     0.948715138299    -2.87073    
shOss    H      0.612129548647     0.503221049034     0.750015895927    -2.87073    
shOss    H      0.557470075429     0.557505177433     0.675544852965    -2.87073    
shOss    H      0.557973877319     0.947990455665     0.829461063969    -2.87073    
shOss    H      0.502839433562     0.612199870783     0.750863701860    -2.87073    
shOss    H      0.558844538942     0.558624956630     0.829115928955    -2.87073    
shOss    H      0.502696249118     0.891123164254     0.750055052033    -2.87073    
shOss    H      0.946862764917     0.947520560709     0.831911997908    -2.87073    
shOss    H      0.947093849447     0.948799214892     0.673514101009    -2.87073    
shOss    H      0.557540071397     0.949190214412     0.675539172714    -2.87073    
shOss    H      0.946661211768     0.555691534490     0.671945996507    -2.87073    
shOgs    H      0.004149845625     0.357195464080     0.148080331026    -3.33043    
shOgs    H      0.000058605617     0.356196509241     0.356325509552    -3.33043    
shOgs    H      0.250158884110     0.001213022244     0.393487401983    -3.33043    
shOgs    H      0.148932903419     0.001868320933     0.356987059060    -3.33043    
shOgs    H      0.174509304529     0.055262869324     0.448383192057    -3.33043    
shOgs    H      0.448476736136     0.174833531155     0.449188300954    -3.33043    
shOgs    H      0.354617550160     0.003362114878     0.355232847013    -3.33043    
shOgs    H      0.332361853726     0.448826980991     0.449024615185    -3.33043    
shOgs    H      0.058493405101     0.449197341702     0.329653142236    -3.33043    
shOgs    H      0.391683405944     0.003920015057     0.252521841530    -3.33043    
shOgs    H      0.445544175250     0.055941446324     0.329062268559    -3.33043    
shOgs    H      0.057628801326     0.448792575493     0.175550816221    -3.33043    
shOgs    H      0.392980888263     0.252184105772     0.500827153790    -3.33043    
shOgs    H      0.354431376557     0.147449809681     0.500951947350    -3.33043    
shOgs    H      0.447411163805     0.173326260377     0.556500902994    -3.33043    
shOgs    H      0.250667650090     0.393802894539     0.503511412665    -3.33043    
shOgs    H      0.356847914375     0.353397219057     0.500014349937    -3.33043    
shOgs    H      0.331888040116     0.446180151188     0.557355836476    -3.33043    
shOgs    H      0.057383826630     0.329113681573     0.558042235347    -3.33043    
shOgs    H      0.446995074531     0.331456589703     0.947672324606    -3.33043    
shOgs    H      0.002597056812     0.151042959213     0.650230830907    -3.33043    
shOgs    H      0.057331617562     0.172042409292     0.558877771842    -3.33043    
shOgs    H      0.003599649369     0.355964239018     0.650085258833    -3.33043    
shOgs    H      0.001204996679     0.251715940844     0.891462365311    -3.33043    
shOgs    H      0.000095075117     0.355879024652     0.854747211004    -3.33043    
shOgs    H      0.054913891970     0.329541927398     0.947150581277    -3.33043    
shOgs    H      0.251287994749     0.003306462411     0.893430923758    -3.33043    
shOgs    H      0.149517727420     0.001258955099     0.855441025873    -3.33043    
shOgs    H      0.174463425409     0.057549085256     0.949275450397    -3.33043    
shOgs    H      0.000039999774     0.150314529397     0.854878283163    -3.33043    
shOgs    H      0.000760595511     0.110574862382     0.751332614959    -3.33043    
shOgs    H      0.058684320202     0.058377575212     0.830438204543    -3.33043    
shOgs    H      0.150254095960     0.650058034005     0.003791958647    -3.33043    
shOgs    H      0.395210264319     0.753913078070     0.000433198063    -3.33043    
shOgs    H      0.356897893356     0.651027830584     0.000081139048    -3.33043    
shOgs    H      0.445826767218     0.672081320041     0.055731066525    -3.33043    
shOgs    H      0.109568028558     0.752306178418     0.003762280104    -3.33043    
shOgs    H      0.173353722440     0.947664945836     0.446049053524    -3.33043    
shOgs    H      0.058880209913     0.672244571332     0.446100373920    -3.33043    
shOgs    H      0.055182401716     0.674577909989     0.057430619392    -3.33043    
shOgs    H      0.055743431276     0.828628601906     0.448050320039    -3.33043    
shOgs    H      0.329060359883     0.947625940962     0.448583305765    -3.33043    
shOgs    H      0.447786692814     0.946328601867     0.329349033534    -3.33043    
shOgs    H      0.150006851484     0.648732179332     0.500589603204    -3.33043    
shOgs    H      0.251745192290     0.892754258080     0.501575543915    -3.33043    
shOgs    H      0.355572074243     0.854507442611     0.501202076406    -3.33043    
shOgs    H      0.332323378670     0.946267885032     0.558794618300    -3.33043    
shOgs    H      0.151084280010     0.855464912961     0.503308281342    -3.33043    
shOgs    H      0.055764361709     0.831875038353     0.558861035001    -3.33043    
shOgs    H      0.173634633176     0.945186305669     0.945352403761    -3.33043    
shOgs    H      0.057009325057     0.671739547989     0.945689333283    -3.33043    
shOgs    H      0.000762306762     0.753608679766     0.609629418076    -3.33043    
shOgs    H      0.004056804428     0.648333770100     0.649649904444    -3.33043    
shOgs    H      0.447145839853     0.671566825879     0.947957262763    -3.33043    
shOgs    H      0.647137005191     0.149463028398     0.004076839160    -3.33043    
shOgs    H      0.647303568828     0.354350517959     0.002608059440    -3.33043    
shOgs    H      0.555625137764     0.329897809191     0.057853498024    -3.33043    
shOgs    H      0.555734323561     0.171553703245     0.055393703081    -3.33043    
shOgs    H      0.856813550815     0.001384116566     0.150862719706    -3.33043    
shOgs    H      0.559057085668     0.330589290832     0.448559499543    -3.33043    
shOgs    H      0.891706442326     0.000658035239     0.250837297313    -3.33043    
shOgs    H      0.948515949940     0.447522541229     0.328719861788    -3.33043    
shOgs    H      0.948636569010     0.446559082899     0.175015049005    -3.33043    
shOgs    H      0.945220435250     0.056879851747     0.175542088915    -3.33043    
shOgs    H      0.945681123922     0.172187753609     0.556438088441    -3.33043    
shOgs    H      0.611865395633     0.251081875957     0.501034775096    -3.33043    
shOgs    H      0.650591081426     0.353291872101     0.501946886044    -3.33043    
shOgs    H      0.555611188029     0.332206329117     0.556754630729    -3.33043    
shOgs    H      0.555942688733     0.173844595813     0.947501522123    -3.33043    
shOgs    H      0.947519908842     0.331063648050     0.948848770723    -3.33043    
shOgs    H      0.947574829939     0.329871711237     0.556620741006    -3.33043    
shOgs    H      0.674627376215     0.447306092897     0.555897201746    -3.33043    
shOgs    H      0.501195099953     0.251309754533     0.894403208279    -3.33043    
shOgs    H      0.502891859776     0.356169781689     0.854614964945    -3.33043    
shOgs    H      0.948194879596     0.056026309475     0.830848732004    -3.33043    
shOgs    H      0.947052526595     0.446225160295     0.829713321945    -3.33043    
shOgs    H      0.751077141032     0.613157117976     0.001750974541    -3.33043    
shOgs    H      0.673087592239     0.556046190189     0.055516609740    -3.33043    
shOgs    H      0.893571072439     0.750091558032     0.004025312130    -3.33043    
shOgs    H      0.752145408662     0.892132215391     0.002131763854    -3.33043    
shOgs    H      0.856177736284     0.855177501273     0.000696237765    -3.33043    
shOgs    H      0.612525631730     0.751802066505     0.003938378059    -3.33043    
shOgs    H      0.647041544175     0.854189514179     0.003946789793    -3.33043    
shOgs    H      0.675551504952     0.949182075954     0.447287997324    -3.33043    
shOgs    H      0.829225506798     0.555769678552     0.446523732644    -3.33043    
shOgs    H      0.558218073373     0.674198893358     0.058856233932    -3.33043    
shOgs    H      0.948330722908     0.828613854194     0.058700988443    -3.33043    
shOgs    H      0.675229606226     0.946585741818     0.054902820320    -3.33043    
shOgs    H      0.948348369945     0.945290373783     0.174159786122    -3.33043    
shOgs    H      0.750550219828     0.610924980749     0.504038953880    -3.33043    
shOgs    H      0.674590864745     0.558052193757     0.558720728374    -3.33043    
shOgs    H      0.854503730752     0.648929296127     0.500811906420    -3.33043    
shOgs    H      0.947873311122     0.671821703309     0.558148111148    -3.33043    
shOgs    H      0.750060825961     0.893574293562     0.503487279189    -3.33043    
shOgs    H      0.648917045830     0.856594664632     0.500415840620    -3.33043    
shOgs    H      0.675337986320     0.945268029297     0.949075113180    -3.33043    
shOgs    H      0.555376147355     0.673146722380     0.945377350259    -3.33043    
shOgs    H      0.948815075744     0.828723685735     0.949280153741    -3.33043    
shOgs    H      0.751970491213     0.504025801343     0.610224839166    -3.33043    
shOgs    H      0.829250731287     0.557332234453     0.556859316896    -3.33043    
shOgs    H      0.648761376315     0.500153325254     0.649376863247    -3.33043    
shOgs    H      0.671803386569     0.946973278066     0.558841017242    -3.33043    
shOgs    H      0.674632937337     0.554928394569     0.948447995898    -3.33043    
shOgs    H      0.854411054801     0.503827171772     0.856686989929    -3.33043    
shOgs    H      0.892023704221     0.502588296131     0.750907078874    -3.33043    
shOgs    H      0.946807164985     0.555065878228     0.829920675111    -3.33043    


