data_16577-ICSD
#©2002 by Fachinformationszentrum Karlsruhe, and the U.S. Secretary of 
#Commerce on behalf of the United States.  All rights reserved.
_database_code_ICSD                16577
_audit_creation_date               1986/09/24
_audit_update_record               2001/12/18
_chemical_name_systematic          'Germanium Oxide'
_chemical_formula_structural       'Ge O2'
_chemical_formula_sum              'Ge1 O2'
_publ_section_title
;
The crystal structure of quartz-like Ge O2
;
loop_
_citation_id
_citation_journal_abbrev
_citation_year
_citation_journal_volume
_citation_page_first
_citation_page_last
_citation_journal_id_ASTM
primary 'Acta Crystallographica (1,1948-23,1967)' 1964 17 842 846 ACCRA9
2
;
Zeitschrift fuer Kristallographie, Kristallgeometrie, Kristallphysik, 
Kristallchemie (-144,1977)
;
 1928 67 226 234 ZEKGAX
loop_
_publ_author_name
'Smith, G.S.'
'Isaacs, P.B.'
_cell_length_a                     4.987
_cell_length_b                     4.987
_cell_length_c                     5.652
_cell_angle_alpha                  90.
_cell_angle_beta                   90.
_cell_angle_gamma                  120.
_cell_volume                       121.73
_cell_formula_units_Z              3
_symmetry_space_group_name_H-M     'P 32 2 1 S'
_symmetry_Int_Tables_number        154
_refine_ls_R_factor_all            0.019
loop_
_symmetry_equiv_pos_site_id
_symmetry_equiv_pos_as_xyz
  1	'x-y, -y, -z'
  2	'-x+y, -x, z+1/3'
  3	'-x, -x+y, -z+1/3'
  4	'-y, x-y, z+2/3'
  5	'y, x, -z+2/3'
  6	'x, y, z'
loop_
_atom_type_symbol
_atom_type_oxidation_number
Ge4+  	4
O2-   	-2
loop_
_atom_site_label
_atom_site_type_symbol
_atom_site_symmetry_multiplicity
_atom_site_Wyckoff_symbol
_atom_site_fract_x
_atom_site_fract_y
_atom_site_fract_z
_atom_site_occupancy
_atom_site_attached_hydrogens
O1 O2- 6 c 0.3969(5) 0.3021(5) 0.0909(4) 1. 0 
Ge1 Ge4+ 3 a 0.4513(1) 0 0 1. 0 

#End of data_16577-ICSD
